 Gaussian 16, Revision C.01,
 Gaussian 16:  EM64L-G16RevC.01  3-Jul-2019

 -----------------------------------------------------
 #P PBE1PBE/Def2SVP TD(NStates=5, NAC) Density=Current
 -----------------------------------------------------

 -------------------
 Title Card Required
 -------------------
 Symbolic Z-matrix:
 Charge =  0 Multiplicity = 1

                         Standard orientation:
 ---------------------------------------------------------------------
 Center     Atomic      Atomic             Coordinates (Angstroms)
 Number     Number       Type             X           Y           Z
 ---------------------------------------------------------------------
      1          8           0        0.000000    0.000000    0.685774
      2          6           0        0.000000    0.000000   -0.538862
      3          1           0        0.000000    0.931881   -1.126510
      4          1           0       -0.000000   -0.931881   -1.126510
 ---------------------------------------------------------------------

 SCF Done:  E(RPBE1PBE) =  -114.282325588     A.U. after   11 cycles

 Excitation energies and oscillator strengths:

 Excited State   1:      Singlet-A2     3.8750 eV  319.96 nm  f=0.0000  <S**2>=0.000
       8 ->  9         0.70699
 This state for optimization and/or second-order correction.
 Total Energy, E(TD-HF/TD-DFT) =  -114.139922734
 Copying the excited state density for this state as the 1-particle RhoCI density.

 Excited State   2:      Singlet-B2     8.5559 eV  144.91 nm  f=0.1381  <S**2>=0.000
       8 -> 10         0.70628

 Excited State   3:      Singlet-B1     8.9339 eV  138.78 nm  f=0.0015  <S**2>=0.000
       6 ->  9         0.70612

 Excited State   4:      Singlet-A1     9.5214 eV  130.22 nm  f=0.0209  <S**2>=0.000
       7 ->  9         0.57367
       8 -> 11         0.40136

 Excited State   5:      Singlet-A2    10.1487 eV  122.17 nm  f=0.0000  <S**2>=0.000
       5 ->  9         0.70565

 The electronic state is 1-A1.
 Alpha  occ. eigenvalues --  -19.22814 -10.33393  -1.06627  -0.65101  -0.50879
 Alpha  occ. eigenvalues --   -0.46187  -0.40945  -0.28199
 Alpha virt. eigenvalues --   -0.04346   0.08377   0.14684   0.20640   0.45500
 Alpha virt. eigenvalues --    0.47599   0.55880   0.60421   0.63934   0.65979
 Alpha virt. eigenvalues --    0.91045   1.01047   1.11981   1.16639   1.30600

 Mulliken charges:
               1
     1  O   -0.244725
     2  C    0.160267
     3  H    0.042229
     4  H    0.042229
 Sum of Mulliken charges =   0.00000

 Dipole moment (field-independent basis, Debye):
    X=              0.0000    Y=              0.0000    Z=             -2.3232  Tot=              2.3232
 Quadrupole moment (field-independent basis, Debye-Ang):
   XX=            -11.4343   YY=            -11.4580   ZZ=            -11.9231
   XY=              0.0000   XZ=              0.0000   YZ=              0.0000

 Normal termination of Gaussian 16 at Wed Nov 27 00:50:45 2024.
