                         Program Version 6.0.0  -   RELEASE  -
|  1> !PBE0 DEF2-SVP
|  2> %TDDFT NROOTS 5
|  3> SGRADLIST  0, 1
|  4> NACME TRUE
|  5> ETF TRUE
|  6> END
|  7> * xyz 0 1
|  8> O       0.00000000       0.00000000       0.61140329
|  9> C       0.00000000       0.00000000      -0.61323210
| 10> H       0.93188079       0.00000000      -1.20088085
| 11> H      -0.93188079       0.00000000      -1.20088085
| 12> *
| 13> %METHOD STORECISGRAD TRUE END
| 14>
| 15>
| 16>                          ****END OF INPUT****

CARTESIAN COORDINATES (ANGSTROEM)
---------------------------------
  O      0.000000    0.000000    0.611403
  C      0.000000    0.000000   -0.613232
  H      0.931881    0.000000   -1.200881
  H     -0.931881    0.000000   -1.200881

 Total Charge           Charge          ....    0
 Multiplicity           Mult            ....    1
 Number of Electrons    NEL             ....   16
 Basis Dimension        Dim             ....   38

ORBITAL ENERGIES
----------------

  NO   OCC          E(Eh)            E(eV)
   0   2.0000     -19.226965      -523.1923
   1   2.0000     -10.333966      -281.2015
   2   2.0000      -1.065791       -29.0016
   3   2.0000      -0.651002       -17.7147
   4   2.0000      -0.508703       -13.8425
   5   2.0000      -0.461439       -12.5564
   6   2.0000      -0.409111       -11.1325
   7   2.0000      -0.281630        -7.6635
   8   0.0000      -0.043253        -1.1770
   9   0.0000       0.083591         2.2746
  10   0.0000       0.146663         3.9909
  11   0.0000       0.206513         5.6195
  12   0.0000       0.454911        12.3788

----------------------------------------------------------------------------------------------------
                     ABSORPTION SPECTRUM VIA TRANSITION ELECTRIC DIPOLE MOMENTS
----------------------------------------------------------------------------------------------------
     Transition      Energy     Energy  Wavelength fosc(D2)      D2        DX        DY        DZ
                      (eV)      (cm-1)    (nm)                 (au**2)    (au)      (au)      (au)
----------------------------------------------------------------------------------------------------
  0-1A  ->  1-1A    3.898372   31442.5   318.0   0.000000000   0.00000  -0.00000  -0.00000   0.00000
  0-1A  ->  2-1A    8.570727   69127.6   144.7   0.151488523   0.72145  -0.84938   0.00000   0.00000
  0-1A  ->  3-1A    9.016126   72720.0   137.5   0.002175713   0.00985  -0.00000  -0.09925   0.00000
  0-1A  ->  4-1A    9.823814   79234.4   126.2   0.001094692   0.00455   0.00000  -0.00000  -0.06744
  0-1A  ->  5-1A   10.165750   81992.3   122.0   0.000000000   0.00000   0.00000  -0.00000  -0.00000

MULLIKEN ATOMIC CHARGES
-----------------------
   0 O :   -0.103768
   1 C :   -0.129396
   2 H :    0.116582
   3 H :    0.116582
Sum of atomic charges:   -0.0000000

LOEWDIN ATOMIC CHARGES
----------------------
   0 O :    0.027243
   1 C :   -0.138143
   2 H :    0.055450
   3 H :    0.055450

  Mayer bond orders larger than 0.100000
B(  0-O ,  1-C ) :   1.3367 B(  1-C ,  2-H ) :   0.8841 B(  1-C ,  3-H ) :   0.8841

FINAL SINGLE POINT ENERGY      -114.139208717795

DIPOLE MOMENT
-------------

Method             : TDA/CIS
Type of density    : Electron Density
Level              : Relaxed density
State              :   1
Multiplicity       :   1
Irrep              :   0
Energy             :     0.0000000000000000 Eh
Relativity type    :
Basis              : AO
                                X                 Y                 Z
Electronic contribution:     -0.000000007      -0.000000299       1.615535391
Nuclear contribution   :      0.000000000       0.000000000      -2.243940122
                        -----------------------------------------
Total Dipole Moment    :     -0.000000007      -0.000000299      -0.628404731
                        -----------------------------------------
Magnitude (a.u.)       :      0.628404731
Magnitude (Debye)      :      1.597277888

Rotational constants in cm-1:             9.629099             1.257589             1.112317
Rotational constants in MHz :        288673.127766         37701.571278         33346.428306

                             ****ORCA TERMINATED NORMALLY****
TOTAL RUN TIME: 0 days 0 hours 0 minutes 4 seconds 633 msec
